256
Step: 0
Ar     1.697953     1.635315     1.643974
Ar     1.608707     1.706498     4.940479
Ar     1.692897     1.700273     8.263733
Ar     1.676826     1.584725    11.503212
Ar     1.694180     1.588981    14.790101
Ar     1.686902     1.659872    18.230164
Ar     1.667444     1.688589    21.408070
Ar     1.689017     4.996107     1.692235
Ar     1.727771     4.949619     4.954682
Ar     1.695828     4.999473     8.238879
Ar     1.616456     4.978703    11.633421
Ar     1.644117     5.036449    14.824300
Ar     1.595997     4.998917    18.203734
Ar     1.603037     4.916972    21.411410
Ar     1.609501     8.323823     1.676160
Ar     1.733692     8.315382     4.877874
Ar     1.724323     8.337574     8.252469
Ar     1.580821     8.214236    11.550829
Ar     1.687206     8.334129    14.841113
Ar     1.642764     8.315704    18.239900
Ar     1.626370     8.251989    21.535270
Ar     1.632734    11.596284     1.650295
Ar     1.669776    11.516307     4.970270
Ar     1.655021    11.514960     8.207733
Ar     1.720038    11.505585    11.608477
Ar     1.629725    11.509175    14.844404
Ar     1.617808    11.585045    18.236375
Ar     1.632361    11.587828    21.469661
Ar     1.658651    14.782229     1.655231
Ar     1.705407    14.804620     4.982489
Ar     1.733921    14.808351     8.230375
Ar     1.681079    14.845066    11.478877
Ar     1.629406    14.783593    14.839477
Ar     1.713559    14.834825    18.183206
Ar     1.681807    14.931427    21.436011
Ar     1.668613    18.215478     1.617545
Ar     1.635129    18.243251     5.031539
Ar     1.626463    18.243279     8.296318
Ar     1.690224    18.187618    11.592110
Ar     1.724336    18.144106    14.934010
Ar     1.679733    18.223887    18.160738
Ar     1.660106    18.083991    21.427732
Ar     1.588774    21.529705     1.712247
Ar     1.653797    21.518364     5.024107
Ar     1.683616    21.444547     8.238346
Ar     1.642547    21.388041    11.539104
Ar     1.724619    21.507549    14.794439
Ar     1.693825    21.423353    18.161086
Ar     1.587080    21.530725    21.411650
Ar     4.961334     1.647543     1.618580
Ar     4.881630     1.638032     4.987618
Ar     4.968723     1.701128     8.200988
Ar     4.907026     1.686050    11.631320
Ar     5.000852     1.668563    14.841364
Ar     4.899636     1.674500    18.237553
Ar     4.895248     1.589457    21.531813
Ar     4.995149     4.899556     1.636626
Ar     4.983335     4.950047     4.967699
Ar     4.873931     5.009755     8.291869
Ar     4.899624     4.984766    11.489132
Ar     4.954406     4.990766    14.794536
Ar     4.978788     4.877116    18.155668
Ar     4.978773     5.001567    21.431968
Ar     4.983767     8.331529     1.726042
Ar     4.969469     8.251680     4.973919
Ar     5.002373     8.290457     8.280008
Ar     4.914891     8.297350    11.569803
Ar     4.971575     8.216818    14.834398
Ar     4.932912     8.296374    18.221442
Ar     4.983980     8.213858    21.518831
Ar     5.008224    11.552303     1.583703
Ar     4.988261    11.638419     4.961627
Ar     4.901731    11.508634     8.289610
Ar     4.941422    11.558992    11.541066
Ar     4.907603    11.486515    14.794887
Ar     4.977034    11.618322    18.186190
Ar     4.955257    11.485431    21.500511
Ar     4.957866    14.783438     1.616350
Ar     4.926435    14.835413     4.921259
Ar     4.999086    14.783923     8.175889
Ar     4.998459    14.849772    11.536997
Ar     5.021763    14.883158    14.834278
Ar     4.877695    14.842390    18.199551
Ar     4.890109    14.929572    21.549852
Ar     4.962156    18.161319     1.614996
Ar     4.886480    18.194534     4.900408
Ar     5.023295    18.244389     8.205716
Ar     4.896820    18.239932    11.628325
Ar     5.003394    18.208493    14.883712
Ar     4.945547    18.223013    18.158852
Ar     4.893342    18.106099    21.491261
Ar     4.878036    21.515334     1.631720
Ar     4.876639    21.422608     4.897460
Ar     5.008514    21.394109     8.294332
Ar     5.028366    21.534558    11.621054
Ar     4.877721    21.535272    14.910935
Ar     4.926163    21.478352    18.149583
Ar     4.880209    21.418103    21.545631
Ar     8.187585     1.725983     1.572315
Ar     8.185692     1.571426     4.990622
Ar     8.305632     1.583458     8.203839
Ar     8.292323     1.671311    11.488111
Ar     8.189333     1.569796    14.841974
Ar     8.288543     1.682894    18.118109
Ar     8.196790     1.590408    21.468184
Ar     8.192649     4.981474     1.733871
Ar     8.199098     4.955090     4.975939
Ar     8.182324     4.994310     8.235221
Ar     8.181887     5.000935    11.614341
Ar     8.305725     4.977409    14.927248
Ar     8.286769     4.970488    18.237211
Ar     8.285973     5.025458    21.461630
Ar     8.191004     8.291372     1.713727
Ar     8.250999     8.293765     4.998402
Ar     8.205032     8.313099     8.282797
Ar     8.307541     8.176040    11.621036
Ar     8.198554     8.315627    14.811728
Ar     8.298277     8.189038    18.169694
Ar     8.317763     8.217279    21.485804
Ar     8.290884    11.491435     1.626745
Ar     8.261228    11.507894     4.971069
Ar     8.307389    11.578633     8.293175
Ar     8.307282    11.526298    11.640609
Ar     8.300663    11.498716    14.844246
Ar     8.318044    11.557205    18.160703
Ar     8.260727    11.489743    21.452370
Ar     8.203284    14.786149     1.640030
Ar     8.235068    14.791447     4.876351
Ar     8.316839    14.792825     8.197369
Ar     8.210813    14.923071    11.641393
Ar     8.277675    14.915066    14.890225
Ar     8.174962    14.808413    18.205550
Ar     8.272957    14.842112    21.469538
Ar     8.212620    18.117147     1.714234
Ar     8.227233    18.104516     4.898476
Ar     8.282818    18.238687     8.309211
Ar     8.197402    18.098617    11.554602
Ar     8.336731    18.227552    14.870274
Ar     8.332316    18.160811    18.217590
Ar     8.273202    18.155724    21.537452
Ar     8.197736    21.510917     1.598244
Ar     8.194594    21.455690     4.952788
Ar     8.283025    21.484389     8.333997
Ar     8.189253    21.537868    11.632942
Ar     8.297045    21.471057    14.844596
Ar     8.198735    21.455118    18.179764
Ar     8.250498    21.431873    21.421691
Ar    11.547235     1.663837     1.581652
Ar    11.611833     1.635896     4.975933
Ar    11.638158     1.599219     8.198130
Ar    11.524018     1.643550    11.571898
Ar    11.526370     1.691183    14.843056
Ar    11.481629     1.679264    18.110188
Ar    11.592790     1.687925    21.411728
Ar    11.558346     5.013278     1.623882
Ar    11.525242     5.019280     4.956465
Ar    11.504180     4.875246     8.208321
Ar    11.490846     4.876251    11.481842
Ar    11.487839     4.988877    14.903913
Ar    11.594711     4.965151    18.129543
Ar    11.575164     4.985886    21.399603
Ar    11.585562     8.255616     1.621642
Ar    11.532115     8.307412     4.978801
Ar    11.532064     8.236555     8.193933
Ar    11.577488     8.293423    11.557581
Ar    11.503143     8.255524    14.920818
Ar    11.569307     8.213619    18.173682
Ar    11.556588     8.237123    21.434986
Ar    11.637158    11.524793     1.595357
Ar    11.575621    11.515906     4.962691
Ar    11.520564    11.539543     8.224866
Ar    11.533829    11.483859    11.554742
Ar    11.545005    11.538208    14.857263
Ar    11.537728    11.619839    18.148613
Ar    11.588042    11.542120    21.485109
Ar    11.515385    14.838588     1.650787
Ar    11.545104    14.926866     5.028065
Ar    11.560139    14.899482     8.279719
Ar    11.568516    14.914002    11.583890
Ar    11.565660    14.795823    14.849145
Ar    11.594232    14.828590    18.116400
Ar    11.634239    14.924515    21.537463
Ar    11.608040    18.171969     1.601086
Ar    11.568164    18.238735     4.967032
Ar    11.558117    18.154003     8.240952
Ar    11.564850    18.156107    11.487614
Ar    11.588553    18.206569    14.839516
Ar    11.560546    18.090964    18.201585
Ar    11.571496    18.096250    21.543618
Ar    11.607484    21.414836     1.597217
Ar    11.485861    21.413131     5.014090
Ar    11.594977    21.535382     8.328313
Ar    11.626372    21.541441    11.621599
Ar    11.555570    21.444300    14.781623
Ar    11.525057    21.432063    18.203013
Ar    11.540966    21.521755    21.432210
Ar    14.924832     1.726222     1.685278
Ar    14.798610     1.660601     4.963415
Ar    14.910413     1.669598     8.300951
Ar    14.858248     1.667547    11.525390
Ar    14.827704     1.643604    14.808427
Ar    14.903881     1.635911    18.158900
Ar    14.854582     1.601660    21.427710
Ar    14.802268     4.940051     1.688387
Ar    14.789428     4.926557     4.988617
Ar    14.854181     5.013350     8.315497
Ar    14.834467     4.947290    11.640715
Ar    14.788897     4.886893    14.886368
Ar    14.793388     4.968116    18.153263
Ar    14.861426     4.912426    21.402568
Ar    14.820406     8.313562     1.603931
Ar    14.916637     8.219617     4.963026
Ar    14.821776     8.301006     8.261344
Ar    14.926630     8.181228    11.542056
Ar    14.846275     8.298366    14.939154
Ar    14.873043     8.203939    18.179518
Ar    14.938605     8.296350    21.488230
Ar    14.926197    11.527817     1.596366
Ar    14.857662    11.578878     4.940963
Ar    14.895193    11.627054     8.216479
Ar    14.824362    11.568654    11.529591
Ar    14.784038    11.525711    14.845766
Ar    14.791092    11.575573    18.097643
Ar    14.883722    11.562917    21.484404
Ar    14.877468    14.861459     1.641297
Ar    14.781832    14.885954     5.034335
Ar    14.935855    14.918302     8.219499
Ar    14.885337    14.801298    11.509689
Ar    14.826684    14.815584    14.785131
Ar    14.943138    14.892523    18.096369
Ar    14.869628    14.806740    21.456409
Ar    14.858122    18.204366     1.730713
Ar    14.828206    18.160123     4.881221
Ar    14.883782    18.109259     8.215384
Ar    14.906766    18.117658    11.560118
Ar    14.846796    18.150142    14.915517
Ar    14.858450    18.181104    18.144794
Ar    14.795277    18.235542    21.472002
Ar    14.835238    21.419803     1.730896
Ar    14.936662    21.456347     4.946249
Ar    14.925613    21.538254     8.201640
Ar    14.800785    21.473184    11.537008
Ar    14.912386    21.483829    14.935506
Ar    14.933805    21.455561    18.094789
Ar    14.829302    21.545608    21.479242
Ar    18.205762     1.711242     1.604432
Ar    18.139062     1.680498     4.875425
Ar    18.202595     1.663644     8.324386
Ar    18.238828     1.626533    11.610705
Ar    18.183722     1.651408    14.797365
Ar    18.213218     1.672170    18.107271
Ar    18.115777     1.588595    21.447539
Ar    18.206534     4.991042     1.648836
Ar    18.199888     4.956224     4.882384
Ar    18.123841     4.878065     8.182061
Ar    18.120775     4.981807    11.560016
256
Step: 0
Ar     1.692410     1.633726     1.646913
Ar     1.600931     1.712190     4.937311
Ar     1.695179     1.720194     8.269636
Ar     1.671695     1.584212    11.505841
Ar     1.705743     1.591690    14.800673
Ar     1.682548     1.653787    18.230118
Ar     1.661345     1.694119    21.412194
Ar     1.684715     4.997043     1.683869
Ar     1.723780     4.938439     4.964969
Ar     1.686000     4.983384     8.238235
Ar     1.608916     4.978434    11.637969
Ar     1.659596     5.045855    14.825215
Ar     1.600823     5.001319    18.200817
Ar     1.608708     4.916215    21.406708
Ar     1.592759     8.333392     1.669595
Ar     1.740040     8.312095     4.881472
Ar     1.730182     8.334054     8.252717
Ar     1.587441     8.220125    11.549741
Ar     1.668467     8.329326    14.828161
Ar     1.642031     8.309083    18.235319
Ar     1.625604     8.245383    21.537764
Ar     1.636723    11.602659     1.650604
Ar     1.673058    11.515404     4.976653
Ar     1.660537    11.513685     8.205487
Ar     1.727335    11.510008    11.609368
Ar     1.628419    11.513089    14.839474
Ar     1.624463    11.595459    18.240518
Ar     1.621099    11.582015    21.474720
Ar     1.646303    14.781715     1.657279
Ar     1.718050    14.792857     4.986967
Ar     1.726539    14.806018     8.235272
Ar     1.683839    14.835240    11.471386
Ar     1.629078    14.790035    14.829368
Ar     1.723748    14.831445    18.176678
Ar     1.682154    14.922015    21.437921
Ar     1.662440    18.211988     1.616020
Ar     1.638331    18.245344     5.035919
Ar     1.619327    18.243222     8.284786
Ar     1.695360    18.180771    11.589834
Ar     1.720562    18.151524    14.928610
Ar     1.678347    18.224113    18.168629
Ar     1.655718    18.079946    21.426728
Ar     1.600254    21.523330     1.717182
Ar     1.643281    21.518031     5.022505
Ar     1.681717    21.439022     8.245614
Ar     1.642841    21.388678    11.526522
Ar     1.732112    21.490309    14.797795
Ar     1.685261    21.423606    18.152063
Ar     1.579493    21.540153    21.398353
Ar     4.957601     1.649752     1.619184
Ar     4.877163     1.634846     4.998284
Ar     4.962100     1.692564     8.207133
Ar     4.898774     1.676144    11.629004
Ar     5.003979     1.672086    14.839399
Ar     4.905279     1.673893    18.234729
Ar     4.889121     1.587622    21.531123
Ar     4.994602     4.896919     1.637220
Ar     4.992147     4.946496     4.958370
Ar     4.875992     5.018684     8.293756
Ar     4.896988     4.972848    11.488432
Ar     4.956762     4.984298    14.783825
Ar     4.970938     4.876006    18.159081
Ar     4.981084     5.014183    21.438025
Ar     4.994052     8.331810     1.724877
Ar     4.961848     8.249898     4.973729
Ar     5.005768     8.283317     8.268133
Ar     4.908229     8.308820    11.575695
Ar     4.968688     8.216597    14.844413
Ar     4.939561     8.302441    18.218890
Ar     4.990078     8.217504    21.525978
Ar     5.010853    11.545636     1.587011
Ar     4.990990    11.642252     4.968114
Ar     4.901749    11.509206     8.300406
Ar     4.932669    11.553699    11.537554
Ar     4.907900    11.498209    14.800709
Ar     4.986202    11.615866    18.187644
Ar     4.965276    11.498987    21.496479
Ar     4.944616    14.781868     1.612878
Ar     4.933365    14.838024     4.915914
Ar     4.982696    14.778375     8.172196
Ar     4.990137    14.850368    11.530737
Ar     5.017921    14.888427    14.821075
Ar     4.889724    14.839483    18.197481
Ar     4.884233    14.921082    21.550662
Ar     4.969612    18.154294     1.594916
Ar     4.892301    18.192643     4.901668
Ar     5.025468    18.245096     8.207234
Ar     4.901078    18.237403    11.639164
Ar     5.002027    18.201868    14.878444
Ar     4.946728    18.223173    18.151792
Ar     4.890774    18.110914    21.495347
Ar     4.878040    21.520538     1.639239
Ar     4.873693    21.429446     4.901626
Ar     5.010187    21.378957     8.294224
Ar     5.022410    21.540863    11.628532
Ar     4.882306    21.536389    14.907161
Ar     4.930781    21.472302    18.155634
Ar     4.887551    21.417236    21.554215
Ar     8.186363     1.723522     1.572016
Ar     8.181568     1.578281     4.989169
Ar     8.299284     1.585602     8.208730
Ar     8.287612     1.675997    11.481322
Ar     8.199160     1.557843    14.846158
Ar     8.281723     1.686087    18.127395
Ar     8.188591     1.596546    21.467633
Ar     8.200801     4.989207     1.739255
Ar     8.201757     4.947654     4.961959
Ar     8.187695     4.996596     8.225027
Ar     8.183102     5.010331    11.615320
Ar     8.293644     4.978197    14.935777
Ar     8.290026     4.970568    18.240912
Ar     8.286246     5.027874    21.464358
Ar     8.198485     8.280867     1.716114
Ar     8.244348     8.300696     4.995235
Ar     8.202768     8.330443     8.286783
Ar     8.312025     8.177610    11.619360
Ar     8.188886     8.314215    14.820013
Ar     8.291812     8.177337    18.157074
Ar     8.327062     8.219449    21.479181
Ar     8.293112    11.496564     1.628419
Ar     8.266610    11.502672     4.964880
Ar     8.309869    11.582498     8.298623
Ar     8.299608    11.527841    11.642937
Ar     8.291961    11.491516    14.853751
Ar     8.316505    11.546556    18.166940
Ar     8.267484    11.497006    21.448136
Ar     8.197070    14.787067     1.637882
Ar     8.238733    14.805503     4.884152
Ar     8.320286    14.793980     8.189754
Ar     8.222434    14.917926    11.643180
Ar     8.295717    14.925796    14.881837
Ar     8.180442    14.802254    18.206876
Ar     8.269042    14.833310    21.478763
Ar     8.207744    18.118654     1.722708
Ar     8.217616    18.107528     4.906450
Ar     8.283781    18.238248     8.306396
Ar     8.199251    18.097212    11.566512
Ar     8.337321    18.231622    14.870846
Ar     8.319702    18.161758    18.216666
Ar     8.272388    18.150827    21.544222
Ar     8.193175    21.514899     1.594901
Ar     8.196834    21.457815     4.951461
Ar     8.282193    21.483139     8.329005
Ar     8.186959    21.537843    11.623865
Ar     8.310554    21.464021    14.846365
Ar     8.207957    21.452120    18.177244
Ar     8.243447    21.434556    21.432337
Ar    11.544808     1.656667     1.579952
Ar    11.608806     1.640759     4.964901
Ar    11.633909     1.596410     8.201467
Ar    11.525391     1.638473    11.581993
Ar    11.542287     1.678663    14.841839
Ar    11.485536     1.683869    18.126493
Ar    11.604586     1.680216    21.408158
Ar    11.569131     5.012914     1.626166
Ar    11.522303     5.000114     4.954513
Ar    11.491700     4.880545     8.205441
Ar    11.487483     4.872615    11.482885
Ar    11.489663     4.989627    14.910732
Ar    11.586892     4.967317    18.130561
Ar    11.570230     4.987616    21.400772
Ar    11.579835     8.261743     1.613468
Ar    11.521357     8.310761     4.971277
Ar    11.533835     8.237230     8.207909
Ar    11.579628     8.289753    11.542968
Ar    11.505988     8.252884    14.914223
Ar    11.575349     8.203134    18.177552
Ar    11.547834     8.237366    21.437005
Ar    11.632196    11.529061     1.582133
Ar    11.568362    11.522109     4.968394
Ar    11.540785    11.533820     8.226906
Ar    11.528914    11.498023    11.555434
Ar    11.546702    11.547261    14.851567
Ar    11.535667    11.619431    18.155738
Ar    11.583164    11.535776    21.473637
Ar    11.519271    14.837803     1.645515
Ar    11.548599    14.923693     5.028600
Ar    11.559177    14.899482     8.280654
Ar    11.563873    14.912298    11.590919
Ar    11.560312    14.778935    14.852913
Ar    11.605385    14.830237    18.122675
Ar    11.632123    14.929514    21.544898
Ar    11.604579    18.183195     1.613164
Ar    11.574768    18.247297     4.969383
Ar    11.562435    18.149177     8.239016
Ar    11.569593    18.165057    11.492937
Ar    11.591874    18.200765    14.837949
Ar    11.554856    18.096959    18.189642
Ar    11.580945    18.095568    21.552569
Ar    11.623438    21.415589     1.605258
Ar    11.481966    21.424071     5.017293
Ar    11.596992    21.526868     8.335761
Ar    11.635059    21.530759    11.615425
Ar    11.563083    21.449532    14.780957
Ar    11.530507    21.433888    18.207183
Ar    11.527141    21.529419    21.437890
Ar    14.918477     1.731876     1.684800
Ar    14.795679     1.655666     4.954531
Ar    14.913345     1.659328     8.299692
Ar    14.864317     1.668498    11.514471
Ar    14.830405     1.642959    14.800470
Ar    14.905715     1.636780    18.173637
Ar    14.860719     1.606449    21.417150
Ar    14.798969     4.939754     1.694534
Ar    14.784289     4.930057     4.990518
Ar    14.852052     5.020272     8.319269
Ar    14.837695     4.948016    11.629988
Ar    14.793812     4.886428    14.889341
Ar    14.791538     4.967310    18.155879
Ar    14.853746     4.916866    21.406921
Ar    14.820579     8.311474     1.605620
Ar    14.924687     8.220034     4.960009
Ar    14.822908     8.281158     8.258271
Ar    14.933149     8.182596    11.544416
Ar    14.845689     8.304409    14.947552
Ar    14.885231     8.214950    18.181005
Ar    14.947477     8.306688    21.482745
Ar    14.921647    11.532319     1.599950
Ar    14.855929    11.585209     4.936659
Ar    14.900978    11.623558     8.223909
Ar    14.805333    11.583446    11.522342
Ar    14.776356    11.535090    14.839766
Ar    14.783465    11.570047    18.101803
Ar    14.888915    11.564595    21.488167
Ar    14.883931    14.861095     1.630228
Ar    14.795951    14.897139     5.030729
Ar    14.923811    14.905855     8.202205
Ar    14.872936    14.797679    11.506810
Ar    14.815893    14.814977    14.787220
Ar    14.944283    14.896475    18.099251
Ar    14.871737    14.804259    21.466603
Ar    14.855093    18.215557     1.724220
Ar    14.837618    18.150521     4.878375
Ar    14.885975    18.110945     8.210836
Ar    14.912117    18.118334    11.555124
Ar    14.857060    18.140719    14.918505
Ar    14.858199    18.181146    18.144383
Ar    14.798243    18.240155    21.470196
Ar    14.830220    21.412840     1.728257
Ar    14.932748    21.450877     4.940980
Ar    14.914188    21.528179     8.188970
Ar    14.805649    21.456545    11.526283
Ar    14.912145    21.493061    14.928287
Ar    14.939773    21.463374    18.094189
Ar    14.831578    21.528241    21.480703
Ar    18.211061     1.700801     1.606849
Ar    18.139109     1.689473     4.883469
Ar    18.186731     1.675293     8.318975
Ar    18.237225     1.637506    11.601913
Ar    18.175309     1.652478    14.799623
Ar    18.200022     1.661092    18.109977
Ar    18.113577     1.585765    21.458656
Ar    18.198068     4.986566     1.652597
Ar    18.205138     4.948191     4.881099
Ar    18.112483     4.878787     8.181656
Ar    18.119438     4.989009    11.561166
256
Step: 100
Ar     0.209496     1.948200     1.834491
Ar    22.658424     1.714775     5.432453
Ar     1.139202     1.861044     8.671179
Ar    22.421412     1.295507    12.194320
Ar     2.316399     1.583478    14.840238
Ar    22.932353     1.422856    17.888467
Ar     0.591126     1.805219    21.340128
Ar     1.355121     5.186482     2.319809
Ar     1.789515     5.371962     5.571844
Ar    22.892187     5.742433     8.386835
Ar     0.266778     4.787977    11.952966
Ar     1.583346     5.084705    15.429342
Ar     0.737104     4.844045    18.841538
Ar     1.195056     5.281872    22.081851
Ar    22.790359     8.554081     0.567058
Ar    22.904324     8.276193     4.390414
Ar     1.936526     8.675260     7.686514
Ar     0.867914     8.225439    10.594681
Ar    22.091355     8.055919    13.810370
Ar     0.509620     8.108126    17.315094
Ar     2.093228     8.523428    20.894256
Ar     1.134175    12.062916     1.995062
Ar     0.907889    11.744714     5.751569
Ar     0.694215    11.822249     9.245696
Ar    23.044261    11.530735    12.731870
Ar     0.551124    11.166474    16.029747
Ar     1.768630    11.343815    19.206054
Ar    22.482150    11.766863    21.763176
Ar    21.409705    15.167698     1.853620
Ar     2.066153    14.766067     4.007869
Ar    22.446364    14.951304     7.152031
Ar     1.033472    14.676153    10.812707
Ar     1.013719    14.758610    14.451136
Ar     2.164495    14.599283    17.986418
Ar     0.723978    14.961412    21.153726
Ar     1.178704    18.412556     2.067733
Ar     0.116366    18.013284     5.444278
Ar     0.671375    18.029831     8.776727
Ar     0.094911    17.821978    12.052331
Ar    23.110318    18.092429    15.452922
Ar    22.962435    17.848024    18.762041
Ar     1.702875    18.436062    21.917448
Ar     1.721629    21.768572     1.379947
Ar    23.117091    21.395870     4.066122
Ar     1.488746    21.501294     7.310911
Ar     0.510191    21.248622    10.701438
Ar     0.707470    21.536820    14.065237
Ar     1.382413    21.209110    17.625900
Ar     0.319107    21.412767    21.063220
Ar     4.103410     1.017234     1.816323
Ar     3.080936     2.457626     4.924274
Ar     4.731842     0.900092     8.284844
Ar     3.568698     1.923127    11.421325
Ar     5.708724     2.046714    14.912167
Ar     4.199086     1.082294    18.236554
Ar     4.352073     2.636240    21.271146
Ar     4.576538     4.374921     0.995307
Ar     5.453966     5.331461     4.525044
Ar     3.887679     4.150869     7.957065
Ar     3.868353     5.392513    11.222494
Ar     5.237325     5.411672    14.417561
Ar     4.304844     4.549094    17.707045
Ar     4.577225     5.966337    20.768168
Ar     3.231651     7.896034     1.451795
Ar     3.593513     8.852142     4.732191
Ar     5.133669     7.599125     7.794412
Ar     4.951241     8.823060    11.375968
Ar     2.546467     8.214732    14.463462
Ar     4.286825     8.011019    17.865630
Ar     5.576637     9.497207    21.585748
Ar     5.072178    11.352348     1.692437
Ar     4.701008    12.173447     4.993473
Ar     4.761715    10.781521     8.282425
Ar     3.403379    11.952801    11.489934
Ar     4.320788    11.915115    15.131469
Ar     5.368503    11.386373    18.566890
Ar     3.199396    12.440468    21.823329
Ar     3.171947    14.581766     1.077336
Ar     5.673237    15.454378     4.297555
Ar     3.028826    14.124879     7.288102
Ar     4.394870    15.187705    10.565695
Ar     4.624744    15.217023    14.096410
Ar     5.884237    14.665019    17.618247
Ar     4.309743    15.912531    20.912658
Ar     4.727721    17.507987     1.565991
Ar     4.219247    18.782879     4.757883
Ar     4.194796    17.326183     7.942798
Ar     4.820434    18.377338    11.489115
Ar     3.488589    18.654669    14.743342
Ar     3.423823    17.738416    18.229015
Ar     5.461101    19.061482    21.758977
Ar     5.518509    20.934547     2.375797
Ar     4.156908    22.154055     5.403388
Ar     5.176063    20.670663     9.123457
Ar     4.185800    21.967177    12.676858
Ar     5.436565    21.654286    15.998684
Ar     4.449552    20.923016    19.167115
Ar     3.990819    22.285267    22.007253
Ar     7.928740     1.457067     1.799226
Ar     6.647039     1.684112     5.194388
Ar     8.071007     2.533588     8.252311
Ar     7.738890     1.265507    11.370202
Ar     9.210661     1.908937    14.529252
Ar     7.853442     0.996945    18.095445
Ar     7.760072     1.987795    21.503697
Ar     8.241768     4.816257     2.488103
Ar     8.652743     5.015305     5.569251
Ar     7.911330     5.668635     9.066733
Ar     7.823972     4.563189    12.223619
Ar     8.743892     5.353382    15.422934
Ar     7.794465     4.635099    18.863568
Ar     7.957057     5.466902    22.228149
Ar     8.085203     8.400694     1.116703
Ar     7.669074     7.675912     4.540387
Ar     9.192277     9.006259     7.715763
Ar     8.916902     7.836588    11.347866
Ar     6.587634     8.315300    14.673538
Ar     8.988810     7.575518    17.904760
Ar     9.652444     8.664635    21.202583
Ar     8.844111    11.637692     1.919362
Ar     7.803600    11.232655     5.246486
Ar     8.364191    12.346692     8.309243
Ar     7.384084    11.064358    11.503414
Ar     8.308253    11.385482    15.243644
Ar     8.749528    10.717442    18.588669
Ar     7.864270    11.974849    21.600696
Ar     7.852219    15.029525     1.675633
Ar     9.200564    14.562343     5.122402
Ar     7.063846    15.550088     7.926180
Ar     7.966551    14.686346    11.269196
Ar     8.676290    15.193771    14.752822
Ar     9.544792    14.333701    18.051907
Ar     7.740106    15.466514    21.261867
Ar     8.143442    18.335316     2.814673
Ar     8.664849    17.874193     5.978649
Ar     8.976621    18.935065     9.214091
Ar     8.819202    18.164557    12.661471
Ar     8.015214    18.321618    16.040312
Ar     6.823292    17.503301    19.177076
Ar     9.288435    18.497084    22.200225
Ar     9.137148    21.293004     0.918669
Ar     8.144527    21.348147     4.557012
Ar     8.120417    22.496416     7.536128
Ar     7.791770    21.252634    11.146254
Ar     9.563645    21.396529    14.132855
Ar     8.616925    21.091032    17.582051
Ar     7.342228    21.545241    20.559955
Ar    11.294894     1.141982     2.422666
Ar    10.610359     2.190037     5.372682
Ar    11.499420     0.916341     8.570969
Ar    11.104481     2.421561    11.702081
Ar    12.644284     1.486700    15.146962
Ar    11.484044     1.610352    18.455562
Ar    11.406361     1.907753    22.078988
Ar    11.934267     4.853686     1.591719
Ar    13.237327     5.426576     4.965162
Ar    11.019996     4.316144     8.069890
Ar    11.915003     5.678772    10.960611
Ar    12.516640     4.897504    14.254258
Ar    11.440167     5.277422    17.762524
Ar    11.376027     5.536650    21.237390
Ar    12.348122     8.209796     1.901407
Ar    11.542814     8.803557     5.226671
Ar    12.406538     7.767762     8.701864
Ar    12.232720     8.953245    12.149817
Ar    10.372708     8.586329    14.745279
Ar    13.252931     8.387122    18.347410
Ar    13.486422     8.315527    21.733765
Ar    12.182160    11.399314     1.226828
Ar    11.367674    12.378428     4.783607
Ar    13.100303    10.627808     7.603061
Ar    11.407717    11.896903    10.275554
Ar    12.148167    11.538863    14.035074
Ar    11.957749    11.660539    17.584857
Ar    12.284285    11.611375    21.028574
Ar    12.020046    14.706018     2.353769
Ar    13.279806    15.581943     5.406846
Ar    11.132399    14.541507     8.262976
Ar    11.901931    15.143933    11.678714
Ar    12.443658    14.732651    15.222357
Ar    13.401919    14.908264    18.511811
Ar    11.862756    14.972030    22.039524
Ar    11.676577    17.881687     1.181753
Ar    12.236907    18.869286     4.814176
Ar    12.334656    17.582507     8.119476
Ar    12.553704    18.511202    11.668662
Ar    11.624121    18.113929    14.947396
Ar    10.556827    18.072343    18.363022
Ar    13.700178    18.241849    21.201017
Ar    13.162856    21.149404     1.863313
Ar    11.857037    22.295461     5.474276
Ar    11.575874    20.754109     9.003071
Ar    12.211845    21.911775    12.198907
Ar    13.403110    21.243212    15.553573
Ar    12.354756    21.277889    18.625693
Ar    11.427670    21.589464    21.927260
Ar    15.054876     1.684614     1.409645
Ar    14.162161     2.271020     5.329719
Ar    15.299314     0.187749     8.238302
Ar    14.674165     1.534161    11.171024
Ar    16.023971     1.920347    14.348822